LAMMPS data file. CGCMM style. atom_style full generated by VMD/TopoTools v1.7 on Thu Dec 12 10:59:50 EST 2019
 375 atoms
 250 bonds
 125 angles
 0 dihedrals
 0 impropers
 2 atom types
 1 bond types
 1 angle types
 0 dihedral types
 0 improper types
 -7.885311 7.868189  xlo xhi
 -7.882560 7.870940  ylo yhi
 -7.900697 7.852803  zlo zhi

# Pair Coeffs
#
# 1  HT
# 2  OT

# Bond Coeffs
#
# 1  HT-OT

# Angle Coeffs
#
# 1  HT-OT-HT

 Masses

 1 1.008000 # HT
 2 15.999400 # OT

 Atoms # full

1 1 2 -0.830000 -6.301402 -6.301402 -6.301404 # OT UNK
2 1 1 0.415000 -7.054222 -5.783961 -6.015480 # HT UNK
3 1 1 0.415000 -6.659992 -6.910259 -6.947114 # HT UNK
4 1 2 -0.830000 -6.301397 -6.301403 -3.150701 # OT UNK
5 1 1 0.415000 -6.169537 -5.773532 -2.363173 # HT UNK
6 1 1 0.415000 -5.897852 -7.144598 -2.944777 # HT UNK
7 1 2 -0.830000 -6.301398 -6.301400 -0.000000 # OT UNK
8 1 1 0.415000 -7.078693 -5.907831 -0.396423 # HT UNK
9 1 1 0.415000 -6.106053 -7.057203 -0.553924 # HT UNK
10 1 2 -0.830000 -6.301401 -6.301401 3.150701 # OT UNK
11 1 1 0.415000 -6.710484 -6.822966 2.460154 # HT UNK
12 1 1 0.415000 -6.294513 -5.408794 2.805099 # HT UNK
13 1 2 -0.830000 -6.301402 -6.301400 6.301401 # OT UNK
14 1 1 0.415000 -6.948818 -6.455254 5.613356 # HT UNK
15 1 1 0.415000 -5.582347 -5.851276 5.858024 # HT UNK
16 1 2 -0.830000 -6.301400 -3.150700 -6.301404 # OT UNK
17 1 1 0.415000 -6.954495 -2.852097 -5.668525 # HT UNK
18 1 1 0.415000 -5.491569 -3.220235 -5.795867 # HT UNK
19 1 2 -0.830000 -6.301400 -3.150698 -3.150701 # OT UNK
20 1 1 0.415000 -6.807473 -2.715694 -3.836923 # HT UNK
21 1 1 0.415000 -6.638092 -2.782118 -2.333992 # HT UNK
22 1 2 -0.830000 -6.301399 -3.150701 -0.000001 # OT UNK
23 1 1 0.415000 -5.799895 -3.957219 0.119384 # HT UNK
24 1 1 0.415000 -5.735075 -2.462147 0.348426 # HT UNK
25 1 2 -0.830000 -6.301401 -3.150701 3.150701 # OT UNK
26 1 1 0.415000 -5.440175 -3.560011 3.234274 # HT UNK
27 1 1 0.415000 -6.208097 -2.304013 3.587329 # HT UNK
28 1 2 -0.830000 -6.301401 -3.150700 6.301398 # OT UNK
29 1 1 0.415000 -5.562896 -3.759021 6.329583 # HT UNK
30 1 1 0.415000 -6.952803 -3.589241 5.754045 # HT UNK
31 1 2 -0.830000 -6.301400 -0.000000 -6.301401 # OT UNK
32 1 1 0.415000 -5.934793 -0.495777 -7.033545 # HT UNK
33 1 1 0.415000 -7.246863 -0.016414 -6.449946 # HT UNK
34 1 2 -0.830000 -6.301397 -0.000000 -3.150699 # OT UNK
35 1 1 0.415000 -5.863197 -0.795157 -3.453904 # HT UNK
36 1 1 0.415000 -6.230574 -0.035811 -2.196791 # HT UNK
37 1 2 -0.830000 -6.301401 0.000000 0.000000 # OT UNK
38 1 1 0.415000 -7.162405 0.411727 0.073348 # HT UNK
39 1 1 0.415000 -5.928211 0.065883 0.878989 # HT UNK
40 1 2 -0.830000 -6.301400 0.000001 3.150702 # OT UNK
41 1 1 0.415000 -6.171376 0.751812 2.572676 # HT UNK
42 1 1 0.415000 -5.420929 -0.229053 3.448251 # HT UNK
43 1 2 -0.830000 -6.301400 0.000000 6.301402 # OT UNK
44 1 1 0.415000 -6.713510 0.604576 5.684247 # HT UNK
45 1 1 0.415000 -5.374324 0.237849 6.287557 # HT UNK
46 1 2 -0.830000 -6.301404 3.150701 -6.301403 # OT UNK
47 1 1 0.415000 -6.691590 3.775887 -6.912246 # HT UNK
48 1 1 0.415000 -6.181609 2.353610 -6.817666 # HT UNK
49 1 2 -0.830000 -6.301399 3.150699 -3.150699 # OT UNK
50 1 1 0.415000 -6.658979 3.187194 -4.037848 # HT UNK
51 1 1 0.415000 -6.003939 2.246612 -3.048849 # HT UNK
52 1 2 -0.830000 -6.301398 3.150700 -0.000001 # OT UNK
53 1 1 0.415000 -5.597983 3.460525 -0.570482 # HT UNK
54 1 1 0.415000 -5.866150 2.943991 0.827079 # HT UNK
55 1 2 -0.830000 -6.301402 3.150701 3.150702 # OT UNK
56 1 1 0.415000 -6.481660 2.390422 3.703621 # HT UNK
57 1 1 0.415000 -7.019302 3.162700 2.517688 # HT UNK
58 1 2 -0.830000 -6.301400 3.150699 6.301400 # OT UNK
59 1 1 0.415000 -6.316388 2.717874 5.447782 # HT UNK
60 1 1 0.415000 -5.397953 3.055420 6.602962 # HT UNK
61 1 2 -0.830000 -6.301400 6.301402 -6.301406 # OT UNK
62 1 1 0.415000 -6.948279 6.294902 -7.006911 # HT UNK
63 1 1 0.415000 -5.524776 5.893217 -6.684131 # HT UNK
64 1 2 -0.830000 -6.301401 6.301404 -3.150699 # OT UNK
65 1 1 0.415000 -7.090956 6.592262 -3.607011 # HT UNK
66 1 1 0.415000 -6.547254 5.465313 -2.754804 # HT UNK
67 1 2 -0.830000 -6.301404 6.301400 0.000000 # OT UNK
68 1 1 0.415000 -6.617596 7.105999 0.410949 # HT UNK
69 1 1 0.415000 -6.669631 5.598069 0.534755 # HT UNK
70 1 2 -0.830000 -6.301400 6.301397 3.150702 # OT UNK
71 1 1 0.415000 -5.585763 6.550563 3.735530 # HT UNK
72 1 1 0.415000 -6.017553 6.595644 2.285207 # HT UNK
73 1 2 -0.830000 -6.301401 6.301404 6.301399 # OT UNK
74 1 1 0.415000 -5.513054 6.803925 6.506857 # HT UNK
75 1 1 0.415000 -6.187939 5.474611 6.770204 # HT UNK
76 1 2 -0.830000 -3.150701 -6.301399 -6.301406 # OT UNK
77 1 1 0.415000 -2.642927 -6.234603 -7.110071 # HT UNK
78 1 1 0.415000 -3.906658 -6.839457 -6.536467 # HT UNK
79 1 2 -0.830000 -3.150700 -6.301399 -3.150699 # OT UNK
80 1 1 0.415000 -2.881434 -7.116740 -2.727678 # HT UNK
81 1 1 0.415000 -3.827926 -6.566257 -3.773153 # HT UNK
82 1 2 -0.830000 -3.150701 -6.301400 0.000000 # OT UNK
83 1 1 0.415000 -2.214123 -6.355664 0.190034 # HT UNK
84 1 1 0.415000 -3.207935 -6.388285 -0.951527 # HT UNK
85 1 2 -0.830000 -3.150701 -6.301400 3.150698 # OT UNK
86 1 1 0.415000 -3.810208 -6.813737 3.618446 # HT UNK
87 1 1 0.415000 -3.449682 -6.298329 2.241399 # HT UNK
88 1 2 -0.830000 -3.150700 -6.301403 6.301396 # OT UNK
89 1 1 0.415000 -3.186337 -7.105159 5.782803 # HT UNK
90 1 1 0.415000 -3.938200 -5.818676 6.050303 # HT UNK
91 1 2 -0.830000 -3.150699 -3.150700 -6.301397 # OT UNK
92 1 1 0.415000 -2.824126 -2.445791 -5.742211 # HT UNK
93 1 1 0.415000 -2.685401 -3.931087 -6.000187 # HT UNK
94 1 2 -0.830000 -3.150700 -3.150701 -3.150699 # OT UNK
95 1 1 0.415000 -4.037350 -2.848309 -3.347280 # HT UNK
96 1 1 0.415000 -3.244885 -3.665510 -2.349245 # HT UNK
97 1 2 -0.830000 -3.150700 -3.150700 0.000000 # OT UNK
98 1 1 0.415000 -3.416013 -3.470222 0.862407 # HT UNK
99 1 1 0.415000 -2.438225 -3.733304 -0.263032 # HT UNK
100 1 2 -0.830000 -3.150700 -3.150699 3.150701 # OT UNK
101 1 1 0.415000 -2.730772 -3.107935 2.291592 # HT UNK
102 1 1 0.415000 -2.741350 -2.446341 3.653239 # HT UNK
103 1 2 -0.830000 -3.150702 -3.150702 6.301402 # OT UNK
104 1 1 0.415000 -2.542956 -3.849094 6.544557 # HT UNK
105 1 1 0.415000 -2.954587 -2.971272 5.381848 # HT UNK
106 1 2 -0.830000 -3.150699 0.000001 -6.301398 # OT UNK
107 1 1 0.415000 -2.941412 -0.577482 -5.567274 # HT UNK
108 1 1 0.415000 -2.720035 0.827337 -6.086276 # HT UNK
109 1 2 -0.830000 -3.150702 0.000000 -3.150702 # OT UNK
110 1 1 0.415000 -2.239419 -0.233841 -3.327110 # HT UNK
111 1 1 0.415000 -3.603781 -0.158548 -3.978842 # HT UNK
112 1 2 -0.830000 -3.150701 0.000000 0.000000 # OT UNK
113 1 1 0.415000 -3.111556 -0.397506 -0.869879 # HT UNK
114 1 1 0.415000 -2.264818 -0.098440 0.348929 # HT UNK
115 1 2 -0.830000 -3.150700 0.000001 3.150701 # OT UNK
116 1 1 0.415000 -3.446967 0.384374 2.325645 # HT UNK
117 1 1 0.415000 -2.224622 -0.194185 3.006114 # HT UNK
118 1 2 -0.830000 -3.150698 -0.000001 6.301403 # OT UNK
119 1 1 0.415000 -2.971851 0.939791 6.333631 # HT UNK
120 1 1 0.415000 -3.901605 -0.121454 6.882455 # HT UNK
121 1 2 -0.830000 -3.150703 3.150701 -6.301402 # OT UNK
122 1 1 0.415000 -3.023078 2.386441 -6.863414 # HT UNK
123 1 1 0.415000 -3.572224 3.797226 -6.867582 # HT UNK
124 1 2 -0.830000 -3.150700 3.150702 -3.150702 # OT UNK
125 1 1 0.415000 -2.292036 3.361359 -3.517513 # HT UNK
126 1 1 0.415000 -3.672216 2.874017 -3.904158 # HT UNK
127 1 2 -0.830000 -3.150701 3.150700 0.000001 # OT UNK
128 1 1 0.415000 -2.394049 2.646489 -0.299136 # HT UNK
129 1 1 0.415000 -2.817526 3.673651 0.729211 # HT UNK
130 1 2 -0.830000 -3.150701 3.150697 3.150700 # OT UNK
131 1 1 0.415000 -3.004485 4.052461 2.864904 # HT UNK
132 1 1 0.415000 -3.365390 3.225450 4.080513 # HT UNK
133 1 2 -0.830000 -3.150699 3.150698 6.301398 # OT UNK
134 1 1 0.415000 -2.649637 3.287703 7.105387 # HT UNK
135 1 1 0.415000 -2.488824 2.969664 5.634034 # HT UNK
136 1 2 -0.830000 -3.150703 6.301406 -6.301399 # OT UNK
137 1 1 0.415000 -2.534222 5.675274 -6.681067 # HT UNK
138 1 1 0.415000 -2.641963 6.766429 -5.637195 # HT UNK
139 1 2 -0.830000 -3.150701 6.301404 -3.150701 # OT UNK
140 1 1 0.415000 -3.573575 5.609366 -2.642277 # HT UNK
141 1 1 0.415000 -3.540855 6.231634 -4.021990 # HT UNK
142 1 2 -0.830000 -3.150698 6.301399 0.000000 # OT UNK
143 1 1 0.415000 -2.407508 6.591758 0.528766 # HT UNK
144 1 1 0.415000 -2.790148 6.189186 -0.879570 # HT UNK
145 1 2 -0.830000 -3.150701 6.301401 3.150699 # OT UNK
146 1 1 0.415000 -3.589030 7.147649 3.061437 # HT UNK
147 1 1 0.415000 -2.265307 6.519277 3.441976 # HT UNK
148 1 2 -0.830000 -3.150701 6.301401 6.301396 # OT UNK
149 1 1 0.415000 -2.306153 5.878802 6.457568 # HT UNK
150 1 1 0.415000 -3.797133 5.616865 6.473910 # HT UNK
151 1 2 -0.830000 0.000001 -6.301402 -6.301404 # OT UNK
152 1 1 0.415000 0.362451 -6.636573 -7.121476 # HT UNK
153 1 1 0.415000 0.729439 -6.340651 -5.682850 # HT UNK
154 1 2 -0.830000 0.000001 -6.301401 -3.150700 # OT UNK
155 1 1 0.415000 0.593519 -5.763284 -3.674530 # HT UNK
156 1 1 0.415000 0.293418 -6.173732 -2.248571 # HT UNK
157 1 2 -0.830000 -0.000000 -6.301400 -0.000000 # OT UNK
158 1 1 0.415000 0.671497 -6.744220 0.518881 # HT UNK
159 1 1 0.415000 -0.631316 -5.983600 0.645504 # HT UNK
160 1 2 -0.830000 -0.000000 -6.301403 3.150701 # OT UNK
161 1 1 0.415000 -0.712489 -6.578047 2.574452 # HT UNK
162 1 1 0.415000 -0.439509 -5.895505 3.897897 # HT UNK
163 1 2 -0.830000 -0.000000 -6.301403 6.301401 # OT UNK
164 1 1 0.415000 -0.309852 -5.541532 5.808630 # HT UNK
165 1 1 0.415000 0.372816 -5.932446 7.102095 # HT UNK
166 1 2 -0.830000 0.000001 -3.150699 -6.301402 # OT UNK
167 1 1 0.415000 -0.370445 -4.030917 -6.236470 # HT UNK
168 1 1 0.415000 -0.737310 -2.566390 -6.124811 # HT UNK
169 1 2 -0.830000 0.000000 -3.150700 -3.150700 # OT UNK
170 1 1 0.415000 0.534891 -2.834439 -3.878781 # HT UNK
171 1 1 0.415000 0.359630 -2.711278 -2.380111 # HT UNK
172 1 2 -0.830000 0.000000 -3.150700 -0.000000 # OT UNK
173 1 1 0.415000 -0.921763 -2.974190 0.188229 # HT UNK
174 1 1 0.415000 0.004289 -4.032386 -0.372619 # HT UNK
175 1 2 -0.830000 0.000000 -3.150698 3.150699 # OT UNK
176 1 1 0.415000 0.154492 -3.022594 2.214774 # HT UNK
177 1 1 0.415000 -0.438907 -3.999437 3.207520 # HT UNK
178 1 2 -0.830000 -0.000000 -3.150700 6.301401 # OT UNK
179 1 1 0.415000 -0.248225 -2.379965 6.811872 # HT UNK
180 1 1 0.415000 0.396200 -2.794472 5.506195 # HT UNK
181 1 2 -0.830000 -0.000000 -0.000000 -6.301399 # OT UNK
182 1 1 0.415000 0.812590 -0.317363 -6.695364 # HT UNK
183 1 1 0.415000 -0.439438 0.474594 -7.007009 # HT UNK
184 1 2 -0.830000 0.000000 0.000000 -3.150700 # OT UNK
185 1 1 0.415000 0.589833 0.151768 -3.889141 # HT UNK
186 1 1 0.415000 0.096734 -0.931731 -2.953847 # HT UNK
187 1 2 -0.830000 0.000000 0.000000 0.000000 # OT UNK
188 1 1 0.415000 0.468159 -0.729544 -0.405985 # HT UNK
189 1 1 0.415000 0.688908 0.609245 0.265434 # HT UNK
190 1 2 -0.830000 0.000000 0.000000 3.150699 # OT UNK
191 1 1 0.415000 -0.167923 0.909596 2.904392 # HT UNK
192 1 1 0.415000 0.373612 0.054605 4.030281 # HT UNK
193 1 2 -0.830000 -0.000000 0.000000 6.301400 # OT UNK
194 1 1 0.415000 -0.800834 -0.523629 6.328035 # HT UNK
195 1 1 0.415000 -0.270841 0.868114 6.600163 # HT UNK
196 1 2 -0.830000 -0.000001 3.150701 -6.301402 # OT UNK
197 1 1 0.415000 0.048645 4.050285 -5.977967 # HT UNK
198 1 1 0.415000 0.124526 2.608540 -5.522431 # HT UNK
199 1 2 -0.830000 -0.000000 3.150702 -3.150701 # OT UNK
200 1 1 0.415000 0.344279 2.397643 -3.630918 # HT UNK
201 1 1 0.415000 0.427752 3.105993 -2.295564 # HT UNK
202 1 2 -0.830000 0.000000 3.150700 0.000000 # OT UNK
203 1 1 0.415000 -0.013253 2.649254 -0.815235 # HT UNK
204 1 1 0.415000 0.909494 3.434430 0.092472 # HT UNK
205 1 2 -0.830000 -0.000000 3.150701 3.150700 # OT UNK
206 1 1 0.415000 0.219008 4.081775 3.113728 # HT UNK
207 1 1 0.415000 -0.924939 3.131298 3.396350 # HT UNK
208 1 2 -0.830000 -0.000000 3.150699 6.301399 # OT UNK
209 1 1 0.415000 0.847684 2.978483 6.711280 # HT UNK
210 1 1 0.415000 0.176481 3.115698 5.361259 # HT UNK
211 1 2 -0.830000 0.000002 6.301400 -6.301399 # OT UNK
212 1 1 0.415000 0.872255 6.673748 -6.430823 # HT UNK
213 1 1 0.415000 -0.599238 6.980683 -6.610798 # HT UNK
214 1 2 -0.830000 0.000000 6.301401 -3.150698 # OT UNK
215 1 1 0.415000 -0.746705 6.855812 -3.377179 # HT UNK
216 1 1 0.415000 -0.345586 5.409276 -3.180885 # HT UNK
217 1 2 -0.830000 0.000000 6.301401 -0.000000 # OT UNK
218 1 1 0.415000 -0.563181 5.581850 -0.285140 # HT UNK
219 1 1 0.415000 0.026821 6.896546 -0.749208 # HT UNK
220 1 2 -0.830000 0.000000 6.301399 3.150699 # OT UNK
221 1 1 0.415000 -0.224174 6.556023 2.255632 # HT UNK
222 1 1 0.415000 0.954351 6.227663 3.147346 # HT UNK
223 1 2 -0.830000 0.000001 6.301401 6.301403 # OT UNK
224 1 1 0.415000 -0.651744 6.269121 5.601104 # HT UNK
225 1 1 0.415000 0.373680 5.420401 6.322258 # HT UNK
226 1 2 -0.830000 3.150701 -6.301401 -6.301402 # OT UNK
227 1 1 0.415000 2.308545 -6.543459 -6.686649 # HT UNK
228 1 1 0.415000 3.251201 -5.372311 -6.508583 # HT UNK
229 1 2 -0.830000 3.150698 -6.301398 -3.150700 # OT UNK
230 1 1 0.415000 2.779377 -6.254521 -4.031695 # HT UNK
231 1 1 0.415000 3.428410 -5.405579 -2.959339 # HT UNK
232 1 2 -0.830000 3.150699 -6.301402 -0.000000 # OT UNK
233 1 1 0.415000 3.419133 -5.445677 -0.334537 # HT UNK
234 1 1 0.415000 3.444544 -6.922544 -0.666386 # HT UNK
235 1 2 -0.830000 3.150700 -6.301400 3.150699 # OT UNK
236 1 1 0.415000 3.746046 -7.040377 3.025347 # HT UNK
237 1 1 0.415000 2.323869 -6.591283 2.765280 # HT UNK
238 1 2 -0.830000 3.150699 -6.301403 6.301401 # OT UNK
239 1 1 0.415000 2.453273 -6.831349 6.687391 # HT UNK
240 1 1 0.415000 3.477375 -6.828784 5.572441 # HT UNK
241 1 2 -0.830000 3.150700 -3.150698 -6.301401 # OT UNK
242 1 1 0.415000 3.784825 -2.995184 -7.001349 # HT UNK
243 1 1 0.415000 3.419324 -2.559174 -5.598426 # HT UNK
244 1 2 -0.830000 3.150700 -3.150699 -3.150703 # OT UNK
245 1 1 0.415000 3.904630 -2.701200 -3.532502 # HT UNK
246 1 1 0.415000 3.486907 -4.010299 -2.897155 # HT UNK
247 1 2 -0.830000 3.150701 -3.150701 -0.000000 # OT UNK
248 1 1 0.415000 3.677850 -2.446279 0.377003 # HT UNK
249 1 1 0.415000 3.150248 -3.834790 0.669516 # HT UNK
250 1 2 -0.830000 3.150700 -3.150697 3.150700 # OT UNK
251 1 1 0.415000 2.740029 -3.434751 3.967336 # HT UNK
252 1 1 0.415000 2.522704 -2.539032 2.766351 # HT UNK
253 1 2 -0.830000 3.150701 -3.150699 6.301401 # OT UNK
254 1 1 0.415000 2.327237 -3.311895 6.762008 # HT UNK
255 1 1 0.415000 3.643742 -2.574730 6.885700 # HT UNK
256 1 2 -0.830000 3.150699 -0.000000 -6.301399 # OT UNK
257 1 1 0.415000 3.191388 -0.279489 -5.386818 # HT UNK
258 1 1 0.415000 4.026333 -0.176433 -6.645441 # HT UNK
259 1 2 -0.830000 3.150700 0.000002 -3.150700 # OT UNK
260 1 1 0.415000 4.004762 0.319058 -3.442273 # HT UNK
261 1 1 0.415000 3.190003 0.047726 -2.195499 # HT UNK
262 1 2 -0.830000 3.150700 0.000000 0.000000 # OT UNK
263 1 1 0.415000 2.916502 0.697439 -0.612343 # HT UNK
264 1 1 0.415000 2.482818 -0.672247 -0.135089 # HT UNK
265 1 2 -0.830000 3.150700 -0.000000 3.150700 # OT UNK
266 1 1 0.415000 3.704475 0.313400 2.435615 # HT UNK
267 1 1 0.415000 2.281769 -0.090227 2.759483 # HT UNK
268 1 2 -0.830000 3.150702 -0.000001 6.301401 # OT UNK
269 1 1 0.415000 2.859434 0.254268 5.425762 # HT UNK
270 1 1 0.415000 4.066039 0.277333 6.339803 # HT UNK
271 1 2 -0.830000 3.150703 3.150700 -6.301401 # OT UNK
272 1 1 0.415000 2.381446 2.611726 -6.117064 # HT UNK
273 1 1 0.415000 3.661578 2.634500 -6.924920 # HT UNK
274 1 2 -0.830000 3.150699 3.150700 -3.150703 # OT UNK
275 1 1 0.415000 3.243477 2.543161 -2.416867 # HT UNK
276 1 1 0.415000 4.047197 3.307582 -3.447201 # HT UNK
277 1 2 -0.830000 3.150700 3.150700 0.000000 # OT UNK
278 1 1 0.415000 3.620765 2.990871 0.818369 # HT UNK
279 1 1 0.415000 2.919380 2.278096 -0.318252 # HT UNK
280 1 2 -0.830000 3.150700 3.150701 3.150700 # OT UNK
281 1 1 0.415000 3.423948 3.018589 4.058508 # HT UNK
282 1 1 0.415000 3.865755 2.785874 2.629330 # HT UNK
283 1 2 -0.830000 3.150701 3.150700 6.301397 # OT UNK
284 1 1 0.415000 2.739166 3.945403 6.640977 # HT UNK
285 1 1 0.415000 2.506877 2.460395 6.460168 # HT UNK
286 1 2 -0.830000 3.150703 6.301399 -6.301402 # OT UNK
287 1 1 0.415000 3.499164 6.564295 -7.153280 # HT UNK
288 1 1 0.415000 2.305120 5.899935 -6.501521 # HT UNK
289 1 2 -0.830000 3.150702 6.301403 -3.150697 # OT UNK
290 1 1 0.415000 2.521342 5.869457 -3.728241 # HT UNK
291 1 1 0.415000 2.716577 6.325563 -2.297945 # HT UNK
292 1 2 -0.830000 3.150700 6.301401 0.000000 # OT UNK
293 1 1 0.415000 2.342942 6.548061 -0.450461 # HT UNK
294 1 1 0.415000 3.838653 6.430695 -0.652868 # HT UNK
295 1 2 -0.830000 3.150700 6.301398 3.150702 # OT UNK
296 1 1 0.415000 3.248589 5.633660 2.471893 # HT UNK
297 1 1 0.415000 2.850380 7.079257 2.680626 # HT UNK
298 1 2 -0.830000 3.150698 6.301401 6.301404 # OT UNK
299 1 1 0.415000 2.822727 6.892399 5.623624 # HT UNK
300 1 1 0.415000 3.720481 6.848689 6.841825 # HT UNK
301 1 2 -0.830000 6.301400 -6.301399 -6.301400 # OT UNK
302 1 1 0.415000 5.543934 -5.984238 -5.809591 # HT UNK
303 1 1 0.415000 6.844303 -5.524200 -6.433515 # HT UNK
304 1 2 -0.830000 6.301400 -6.301403 -3.150703 # OT UNK
305 1 1 0.415000 5.881333 -7.159270 -3.212679 # HT UNK
306 1 1 0.415000 6.784798 -6.329976 -2.325031 # HT UNK
307 1 2 -0.830000 6.301403 -6.301399 0.000000 # OT UNK
308 1 1 0.415000 7.025980 -5.914380 0.491369 # HT UNK
309 1 1 0.415000 6.376729 -5.923506 -0.876216 # HT UNK
310 1 2 -0.830000 6.301403 -6.301403 3.150700 # OT UNK
311 1 1 0.415000 5.566745 -5.702057 3.019161 # HT UNK
312 1 1 0.415000 6.973909 -5.767513 3.573705 # HT UNK
313 1 2 -0.830000 6.301404 -6.301403 6.301402 # OT UNK
314 1 1 0.415000 7.121946 -6.450243 6.771285 # HT UNK
315 1 1 0.415000 5.680503 -6.037450 6.980392 # HT UNK
316 1 2 -0.830000 6.301399 -3.150696 -6.301395 # OT UNK
317 1 1 0.415000 7.200965 -2.946928 -6.045465 # HT UNK
318 1 1 0.415000 5.854576 -3.341360 -5.476630 # HT UNK
319 1 2 -0.830000 6.301397 -3.150704 -3.150700 # OT UNK
320 1 1 0.415000 5.885394 -2.880227 -2.332155 # HT UNK
321 1 1 0.415000 5.981023 -2.525417 -3.800785 # HT UNK
322 1 2 -0.830000 6.301400 -3.150700 0.000002 # OT UNK
323 1 1 0.415000 5.685179 -3.826590 0.282283 # HT UNK
324 1 1 0.415000 6.979369 -3.146750 0.675706 # HT UNK
325 1 2 -0.830000 6.301399 -3.150700 3.150696 # OT UNK
326 1 1 0.415000 6.307037 -2.257190 3.493984 # HT UNK
327 1 1 0.415000 6.373157 -3.706407 3.926757 # HT UNK
328 1 2 -0.830000 6.301403 -3.150696 6.301401 # OT UNK
329 1 1 0.415000 6.314769 -4.056695 6.609970 # HT UNK
330 1 1 0.415000 7.102196 -2.764515 6.656145 # HT UNK
331 1 2 -0.830000 6.301400 -0.000001 -6.301398 # OT UNK
332 1 1 0.415000 6.852410 0.731108 -6.580857 # HT UNK
333 1 1 0.415000 5.763906 0.360467 -5.596133 # HT UNK
334 1 2 -0.830000 6.301400 0.000002 -3.150702 # OT UNK
335 1 1 0.415000 6.828408 -0.734261 -2.835492 # HT UNK
336 1 1 0.415000 5.865667 0.336296 -2.367585 # HT UNK
337 1 2 -0.830000 6.301400 0.000000 0.000000 # OT UNK
338 1 1 0.415000 7.034197 -0.389561 -0.476951 # HT UNK
339 1 1 0.415000 6.712186 0.491930 0.710979 # HT UNK
340 1 2 -0.830000 6.301401 -0.000001 3.150702 # OT UNK
341 1 1 0.415000 7.229740 -0.231919 3.175881 # HT UNK
342 1 1 0.415000 6.192266 0.463493 2.320345 # HT UNK
343 1 2 -0.830000 6.301397 -0.000001 6.301402 # OT UNK
344 1 1 0.415000 6.299973 -0.141924 5.354784 # HT UNK
345 1 1 0.415000 5.464916 -0.357766 6.598967 # HT UNK
346 1 2 -0.830000 6.301402 3.150700 -6.301401 # OT UNK
347 1 1 0.415000 6.727154 2.331896 -6.047393 # HT UNK
348 1 1 0.415000 5.531553 3.206562 -5.735324 # HT UNK
349 1 2 -0.830000 6.301401 3.150701 -3.150702 # OT UNK
350 1 1 0.415000 6.290239 2.871504 -4.066209 # HT UNK
351 1 1 0.415000 5.761548 3.940972 -3.134212 # HT UNK
352 1 2 -0.830000 6.301402 3.150700 0.000000 # OT UNK
353 1 1 0.415000 6.353616 3.540735 0.872567 # HT UNK
354 1 1 0.415000 6.507136 3.869989 -0.597098 # HT UNK
355 1 2 -0.830000 6.301402 3.150701 3.150700 # OT UNK
356 1 1 0.415000 5.517451 3.318208 3.673757 # HT UNK
357 1 1 0.415000 6.064187 2.409540 2.593349 # HT UNK
358 1 2 -0.830000 6.301398 3.150700 6.301400 # OT UNK
359 1 1 0.415000 6.422854 3.956754 5.799640 # HT UNK
360 1 1 0.415000 7.168877 2.955675 6.655898 # HT UNK
361 1 2 -0.830000 6.301397 6.301402 -6.301401 # OT UNK
362 1 1 0.415000 7.022856 5.948755 -5.780470 # HT UNK
363 1 1 0.415000 5.883335 5.530582 -6.685186 # HT UNK
364 1 2 -0.830000 6.301402 6.301401 -3.150701 # OT UNK
365 1 1 0.415000 7.098160 6.601987 -2.713609 # HT UNK
366 1 1 0.415000 6.009313 7.055685 -3.662534 # HT UNK
367 1 2 -0.830000 6.301402 6.301400 0.000000 # OT UNK
368 1 1 0.415000 5.586228 5.665358 -0.014466 # HT UNK
369 1 1 0.415000 6.750611 6.176482 -0.835965 # HT UNK
370 1 2 -0.830000 6.301400 6.301399 3.150702 # OT UNK
371 1 1 0.415000 7.129098 6.668527 2.840287 # HT UNK
372 1 1 0.415000 6.112567 6.782573 3.956332 # HT UNK
373 1 2 -0.830000 6.301403 6.301402 6.301395 # OT UNK
374 1 1 0.415000 5.401467 6.253594 5.978807 # HT UNK
375 1 1 0.415000 6.691399 7.029478 5.817619 # HT UNK

 Bonds

1 1 1 2
2 1 1 3
3 1 4 5
4 1 4 6
5 1 7 8
6 1 7 9
7 1 10 11
8 1 10 12
9 1 13 14
10 1 13 15
11 1 16 17
12 1 16 18
13 1 19 20
14 1 19 21
15 1 22 23
16 1 22 24
17 1 25 26
18 1 25 27
19 1 28 29
20 1 28 30
21 1 31 32
22 1 31 33
23 1 34 35
24 1 34 36
25 1 37 38
26 1 37 39
27 1 40 41
28 1 40 42
29 1 43 44
30 1 43 45
31 1 46 47
32 1 46 48
33 1 49 50
34 1 49 51
35 1 52 53
36 1 52 54
37 1 55 56
38 1 55 57
39 1 58 59
40 1 58 60
41 1 61 62
42 1 61 63
43 1 64 65
44 1 64 66
45 1 67 68
46 1 67 69
47 1 70 71
48 1 70 72
49 1 73 74
50 1 73 75
51 1 76 77
52 1 76 78
53 1 79 80
54 1 79 81
55 1 82 83
56 1 82 84
57 1 85 86
58 1 85 87
59 1 88 89
60 1 88 90
61 1 91 92
62 1 91 93
63 1 94 95
64 1 94 96
65 1 97 98
66 1 97 99
67 1 100 101
68 1 100 102
69 1 103 104
70 1 103 105
71 1 106 107
72 1 106 108
73 1 109 110
74 1 109 111
75 1 112 113
76 1 112 114
77 1 115 116
78 1 115 117
79 1 118 119
80 1 118 120
81 1 121 122
82 1 121 123
83 1 124 125
84 1 124 126
85 1 127 128
86 1 127 129
87 1 130 131
88 1 130 132
89 1 133 134
90 1 133 135
91 1 136 137
92 1 136 138
93 1 139 140
94 1 139 141
95 1 142 143
96 1 142 144
97 1 145 146
98 1 145 147
99 1 148 149
100 1 148 150
101 1 151 152
102 1 151 153
103 1 154 155
104 1 154 156
105 1 157 158
106 1 157 159
107 1 160 161
108 1 160 162
109 1 163 164
110 1 163 165
111 1 166 167
112 1 166 168
113 1 169 170
114 1 169 171
115 1 172 173
116 1 172 174
117 1 175 176
118 1 175 177
119 1 178 179
120 1 178 180
121 1 181 182
122 1 181 183
123 1 184 185
124 1 184 186
125 1 187 188
126 1 187 189
127 1 190 191
128 1 190 192
129 1 193 194
130 1 193 195
131 1 196 197
132 1 196 198
133 1 199 200
134 1 199 201
135 1 202 203
136 1 202 204
137 1 205 206
138 1 205 207
139 1 208 209
140 1 208 210
141 1 211 212
142 1 211 213
143 1 214 215
144 1 214 216
145 1 217 218
146 1 217 219
147 1 220 221
148 1 220 222
149 1 223 224
150 1 223 225
151 1 226 227
152 1 226 228
153 1 229 230
154 1 229 231
155 1 232 233
156 1 232 234
157 1 235 236
158 1 235 237
159 1 238 239
160 1 238 240
161 1 241 242
162 1 241 243
163 1 244 245
164 1 244 246
165 1 247 248
166 1 247 249
167 1 250 251
168 1 250 252
169 1 253 254
170 1 253 255
171 1 256 257
172 1 256 258
173 1 259 260
174 1 259 261
175 1 262 263
176 1 262 264
177 1 265 266
178 1 265 267
179 1 268 269
180 1 268 270
181 1 271 272
182 1 271 273
183 1 274 275
184 1 274 276
185 1 277 278
186 1 277 279
187 1 280 281
188 1 280 282
189 1 283 284
190 1 283 285
191 1 286 287
192 1 286 288
193 1 289 290
194 1 289 291
195 1 292 293
196 1 292 294
197 1 295 296
198 1 295 297
199 1 298 299
200 1 298 300
201 1 301 302
202 1 301 303
203 1 304 305
204 1 304 306
205 1 307 308
206 1 307 309
207 1 310 311
208 1 310 312
209 1 313 314
210 1 313 315
211 1 316 317
212 1 316 318
213 1 319 320
214 1 319 321
215 1 322 323
216 1 322 324
217 1 325 326
218 1 325 327
219 1 328 329
220 1 328 330
221 1 331 332
222 1 331 333
223 1 334 335
224 1 334 336
225 1 337 338
226 1 337 339
227 1 340 341
228 1 340 342
229 1 343 344
230 1 343 345
231 1 346 347
232 1 346 348
233 1 349 350
234 1 349 351
235 1 352 353
236 1 352 354
237 1 355 356
238 1 355 357
239 1 358 359
240 1 358 360
241 1 361 362
242 1 361 363
243 1 364 365
244 1 364 366
245 1 367 368
246 1 367 369
247 1 370 371
248 1 370 372
249 1 373 374
250 1 373 375

 Angles

1 1 2 1 3
2 1 5 4 6
3 1 8 7 9
4 1 11 10 12
5 1 14 13 15
6 1 17 16 18
7 1 20 19 21
8 1 23 22 24
9 1 26 25 27
10 1 29 28 30
11 1 32 31 33
12 1 35 34 36
13 1 38 37 39
14 1 41 40 42
15 1 44 43 45
16 1 47 46 48
17 1 50 49 51
18 1 53 52 54
19 1 56 55 57
20 1 59 58 60
21 1 62 61 63
22 1 65 64 66
23 1 68 67 69
24 1 71 70 72
25 1 74 73 75
26 1 77 76 78
27 1 80 79 81
28 1 83 82 84
29 1 86 85 87
30 1 89 88 90
31 1 92 91 93
32 1 95 94 96
33 1 98 97 99
34 1 101 100 102
35 1 104 103 105
36 1 107 106 108
37 1 110 109 111
38 1 113 112 114
39 1 116 115 117
40 1 119 118 120
41 1 122 121 123
42 1 125 124 126
43 1 128 127 129
44 1 131 130 132
45 1 134 133 135
46 1 137 136 138
47 1 140 139 141
48 1 143 142 144
49 1 146 145 147
50 1 149 148 150
51 1 152 151 153
52 1 155 154 156
53 1 158 157 159
54 1 161 160 162
55 1 164 163 165
56 1 167 166 168
57 1 170 169 171
58 1 173 172 174
59 1 176 175 177
60 1 179 178 180
61 1 182 181 183
62 1 185 184 186
63 1 188 187 189
64 1 191 190 192
65 1 194 193 195
66 1 197 196 198
67 1 200 199 201
68 1 203 202 204
69 1 206 205 207
70 1 209 208 210
71 1 212 211 213
72 1 215 214 216
73 1 218 217 219
74 1 221 220 222
75 1 224 223 225
76 1 227 226 228
77 1 230 229 231
78 1 233 232 234
79 1 236 235 237
80 1 239 238 240
81 1 242 241 243
82 1 245 244 246
83 1 248 247 249
84 1 251 250 252
85 1 254 253 255
86 1 257 256 258
87 1 260 259 261
88 1 263 262 264
89 1 266 265 267
90 1 269 268 270
91 1 272 271 273
92 1 275 274 276
93 1 278 277 279
94 1 281 280 282
95 1 284 283 285
96 1 287 286 288
97 1 290 289 291
98 1 293 292 294
99 1 296 295 297
100 1 299 298 300
101 1 302 301 303
102 1 305 304 306
103 1 308 307 309
104 1 311 310 312
105 1 314 313 315
106 1 317 316 318
107 1 320 319 321
108 1 323 322 324
109 1 326 325 327
110 1 329 328 330
111 1 332 331 333
112 1 335 334 336
113 1 338 337 339
114 1 341 340 342
115 1 344 343 345
116 1 347 346 348
117 1 350 349 351
118 1 353 352 354
119 1 356 355 357
120 1 359 358 360
121 1 362 361 363
122 1 365 364 366
123 1 368 367 369
124 1 371 370 372
125 1 374 373 375

